[{"text": "in this video we're going to talk about", "start": 1.599, "duration": 4.001}, {"text": "temperature conversions", "start": 3.76, "duration": 3.999}, {"text": "how to convert from units such as", "start": 5.6, "duration": 5.039}, {"text": "fahrenheit to celsius and to kelvin and", "start": 7.759, "duration": 4.401}, {"text": "vice versa", "start": 10.639, "duration": 4.241}, {"text": "so let's start with the basics", "start": 12.16, "duration": 5.28}, {"text": "let's say we have a temperature of 100", "start": 14.88, "duration": 4.479}, {"text": "degrees celsius", "start": 17.44, "duration": 3.679}, {"text": "how can we convert", "start": 19.359, "duration": 4.321}, {"text": "that temperature into fahrenheit", "start": 21.119, "duration": 4.08}, {"text": "if you want to convert celsius to", "start": 23.68, "duration": 3.04}, {"text": "fahrenheit here's the formula that you", "start": 25.199, "duration": 3.361}, {"text": "could use", "start": 26.72, "duration": 3.76}, {"text": "the fahrenheit temperature", "start": 28.56, "duration": 4.879}, {"text": "let's just call that f", "start": 30.48, "duration": 2.959}, {"text": "so the fahrenheit temperature is 1.8", "start": 33.52, "duration": 6.559}, {"text": "times the celsius temperature plus 32.", "start": 36.559, "duration": 5.601}, {"text": "so all you need to do is plug in the", "start": 40.079, "duration": 4.081}, {"text": "celsius temperature into the equation", "start": 42.16, "duration": 4.079}, {"text": "and you'll get the answer", "start": 44.16, "duration": 4.559}, {"text": "so it's going to be 1.8", "start": 46.239, "duration": 4.081}, {"text": "times 100", "start": 48.719, "duration": 3.921}, {"text": "plus 32", "start": 50.32, "duration": 4.48}, {"text": "1.8 times 100", "start": 52.64, "duration": 3.919}, {"text": "is 180", "start": 54.8, "duration": 4.64}, {"text": "and 180 plus 32", "start": 56.559, "duration": 5.041}, {"text": "18 plus 3 is 21", "start": 59.44, "duration": 4.08}, {"text": "0 plus 2 is 2.", "start": 61.6, "duration": 4.16}, {"text": "so 180 plus 32 is", "start": 63.52, "duration": 4.32}, {"text": "212.", "start": 65.76, "duration": 4.48}, {"text": "so 100 degrees celsius is equal to a", "start": 67.84, "duration": 4.72}, {"text": "temperature of 212 degrees", "start": 70.24, "duration": 5.36}, {"text": "on the fahrenheit scale", "start": 72.56, "duration": 5.44}, {"text": "this is the boiling point of water the", "start": 75.6, "duration": 4.48}, {"text": "water boils at 100 degrees celsius but", "start": 78.0, "duration": 5.28}, {"text": "in fahrenheit it's 212.", "start": 80.08, "duration": 5.52}, {"text": "so let's try another example", "start": 83.28, "duration": 4.56}, {"text": "of converting a temperature in celsius", "start": 85.6, "duration": 4.479}, {"text": "to fahrenheit so let's say that we want", "start": 87.84, "duration": 4.8}, {"text": "to convert 40 degrees celsius", "start": 90.079, "duration": 4.4}, {"text": "to fahrenheit", "start": 92.64, "duration": 4.479}, {"text": "go ahead and try it", "start": 94.479, "duration": 5.041}, {"text": "so we're going to use the same", "start": 97.119, "duration": 3.441}, {"text": "formula", "start": 99.52, "duration": 5.84}, {"text": "f is equal to 1.8 c plus 32.", "start": 100.56, "duration": 4.8}, {"text": "so we're going to replace c with 40.", "start": 105.759, "duration": 4.0}, {"text": "so 1.8 times 40. let's use the", "start": 111.119, "duration": 5.521}, {"text": "calculator for that", "start": 113.759, "duration": 5.281}, {"text": "so that's going to be 72.", "start": 116.64, "duration": 6.72}, {"text": "for some reason i put 3.2 instead of 32.", "start": 119.04, "duration": 7.6}, {"text": "so let's make that correction", "start": 123.36, "duration": 3.28}, {"text": "72 plus 32 is 104.", "start": 126.88, "duration": 6.48}, {"text": "so a temperature of 104 degrees", "start": 130.72, "duration": 5.28}, {"text": "fahrenheit is equal to a celsius", "start": 133.36, "duration": 5.76}, {"text": "temperature of 40 degrees", "start": 136.0, "duration": 5.2}, {"text": "so now you know how to convert", "start": 139.12, "duration": 3.839}, {"text": "celsius to fahrenheit but let's talk", "start": 141.2, "duration": 4.0}, {"text": "about how we can convert fahrenheit to", "start": 142.959, "duration": 4.401}, {"text": "celsius", "start": 145.2, "duration": 4.96}, {"text": "so let's say we have a temperature of 98", "start": 147.36, "duration": 4.48}, {"text": "degrees fahrenheit", "start": 150.16, "duration": 3.6}, {"text": "how can we convert that into a celsius", "start": 151.84, "duration": 4.399}, {"text": "temperature", "start": 153.76, "duration": 4.8}, {"text": "so the formula that we're going to use", "start": 156.239, "duration": 4.881}, {"text": "is going to be as follows", "start": 158.56, "duration": 4.959}, {"text": "the celsius temperature is equal to the", "start": 161.12, "duration": 5.68}, {"text": "fahrenheit temperature minus 32 divided", "start": 163.519, "duration": 6.8}, {"text": "by 1.8", "start": 166.8, "duration": 5.6}, {"text": "so in this case it's going to be 98", "start": 170.319, "duration": 6.481}, {"text": "minus 32 divided by 1.8", "start": 172.4, "duration": 4.4}, {"text": "98 minus 32", "start": 176.959, "duration": 3.761}, {"text": "we're going to subtract first that's", "start": 179.12, "duration": 4.24}, {"text": "equal to 66", "start": 180.72, "duration": 6.32}, {"text": "next we're going to divide 66 by 1.8", "start": 183.36, "duration": 5.4}, {"text": "and that'll give us a temperature of", "start": 187.04, "duration": 3.919}, {"text": "36.6 repeating", "start": 188.76, "duration": 3.96}, {"text": "which you can round that to", "start": 190.959, "duration": 4.761}, {"text": "36.7", "start": 192.72, "duration": 3.0}, {"text": "so the celsius temperature is 36.7", "start": 195.92, "duration": 5.76}, {"text": "degrees", "start": 199.28, "duration": 2.4}, {"text": "here's another example let's say we have", "start": 202.4, "duration": 3.199}, {"text": "a temperature", "start": 204.08, "duration": 3.76}, {"text": "of", "start": 205.599, "duration": 2.241}, {"text": "130 degrees fahrenheit so that's the", "start": 208.959, "duration": 6.961}, {"text": "temperature in a desert on a hot day", "start": 211.519, "duration": 6.64}, {"text": "what is that in celsius", "start": 215.92, "duration": 4.08}, {"text": "feel free to take a minute and try that", "start": 218.159, "duration": 3.041}, {"text": "example", "start": 220.0, "duration": 3.519}, {"text": "so using the same formula it's the", "start": 221.2, "duration": 5.119}, {"text": "fahrenheit temperature -32 divided by", "start": 223.519, "duration": 4.401}, {"text": "1.8", "start": 226.319, "duration": 3.361}, {"text": "so let's replace f", "start": 227.92, "duration": 4.56}, {"text": "with 130", "start": 229.68, "duration": 2.8}, {"text": "next let's subtract 130 by 32", "start": 233.76, "duration": 7.119}, {"text": "so that'll give us 98 and then let's", "start": 237.92, "duration": 4.64}, {"text": "divide 98", "start": 240.879, "duration": 4.161}, {"text": "by 1.8", "start": 242.56, "duration": 5.759}, {"text": "so the celsius temperature is 54.4", "start": 245.04, "duration": 5.839}, {"text": "repeating", "start": 248.319, "duration": 2.56}, {"text": "so 130 degrees fahrenheit is equal to", "start": 252.319, "duration": 6.32}, {"text": "54.4 on the celsius scale", "start": 254.959, "duration": 5.201}, {"text": "now let's talk about another unit of", "start": 258.639, "duration": 4.081}, {"text": "temperature that is the kelvin unit if", "start": 260.16, "duration": 4.56}, {"text": "you're taking chemistry or physics", "start": 262.72, "duration": 3.039}, {"text": "typically", "start": 264.72, "duration": 3.12}, {"text": "you'll be seeing this unit you'll be", "start": 265.759, "duration": 5.521}, {"text": "using this unit a lot actually", "start": 267.84, "duration": 3.44}, {"text": "let's say we want to convert 25 degrees", "start": 271.6, "duration": 4.56}, {"text": "celsius into kelvin this is a common", "start": 273.84, "duration": 4.079}, {"text": "temperature conversion how can we do", "start": 276.16, "duration": 3.52}, {"text": "that", "start": 277.919, "duration": 3.681}, {"text": "the kelvin temperature is equal to the", "start": 279.68, "duration": 6.799}, {"text": "celsius temperature plus 273.15", "start": 281.6, "duration": 6.48}, {"text": "now typically we tend to ignore the", "start": 286.479, "duration": 6.081}, {"text": "point 15 so we're going to use 273.", "start": 288.08, "duration": 4.48}, {"text": "so all we need to do is replace c with", "start": 293.28, "duration": 3.52}, {"text": "25", "start": 295.28, "duration": 4.479}, {"text": "so it's 25 plus 273", "start": 296.8, "duration": 5.679}, {"text": "so it's 298 kelvin", "start": 299.759, "duration": 5.681}, {"text": "thus 25 degrees on a celsius scale", "start": 302.479, "duration": 6.361}, {"text": "is equal to 298 on the kelvin", "start": 305.44, "duration": 6.24}, {"text": "scale so that's how you can convert from", "start": 308.84, "duration": 5.16}, {"text": "celsius to kelvin all you need to do is", "start": 311.68, "duration": 3.12}, {"text": "just", "start": 314.0, "duration": 5.039}, {"text": "add 273 to the celsius temperature", "start": 314.8, "duration": 5.76}, {"text": "now let's say we have a temperature of", "start": 319.039, "duration": 3.041}, {"text": "500 kelvin", "start": 320.56, "duration": 4.0}, {"text": "and we wish to convert that to", "start": 322.08, "duration": 5.44}, {"text": "the temperature in celsius", "start": 324.56, "duration": 4.8}, {"text": "what do we need to do", "start": 327.52, "duration": 3.36}, {"text": "well since the kelvin temperature is", "start": 329.36, "duration": 3.679}, {"text": "equal to the celsius plus", "start": 330.88, "duration": 5.599}, {"text": "273 the celsius temperature is the", "start": 333.039, "duration": 6.72}, {"text": "kelvin temperature minus 273", "start": 336.479, "duration": 6.16}, {"text": "so it's going to be 500 kelvin", "start": 339.759, "duration": 6.241}, {"text": "minus 273", "start": 342.639, "duration": 3.361}, {"text": "and so that's 220", "start": 349.6, "duration": 5.28}, {"text": "degrees celsius", "start": 352.479, "duration": 4.801}, {"text": "so that's how you can convert kelvin", "start": 354.88, "duration": 5.28}, {"text": "into celsius simply subtract the kelvin", "start": 357.28, "duration": 5.919}, {"text": "temperature by 273 to get the celsius", "start": 360.16, "duration": 5.92}, {"text": "temperature", "start": 363.199, "duration": 4.72}, {"text": "now let's", "start": 366.08, "duration": 3.92}, {"text": "talk about a challenge problem", "start": 367.919, "duration": 3.521}, {"text": "let's say we have the temperature in", "start": 370.0, "duration": 2.639}, {"text": "fahrenheit", "start": 371.44, "duration": 3.92}, {"text": "it's 300 degrees fahrenheit how can we", "start": 372.639, "duration": 5.68}, {"text": "convert it to kelvin", "start": 375.36, "duration": 5.119}, {"text": "feel free to pause the video and try", "start": 378.319, "duration": 4.241}, {"text": "this example problem", "start": 380.479, "duration": 4.241}, {"text": "in order to do this", "start": 382.56, "duration": 4.56}, {"text": "it's best to convert from fahrenheit", "start": 384.72, "duration": 4.56}, {"text": "to celsius and then from celsius to", "start": 387.12, "duration": 4.0}, {"text": "kelvin", "start": 389.28, "duration": 3.44}, {"text": "so we know the celsius temperature is", "start": 391.12, "duration": 3.919}, {"text": "the fahrenheit temperature minus 32", "start": 392.72, "duration": 4.64}, {"text": "divided by 1.8", "start": 395.039, "duration": 4.16}, {"text": "so that's going to be 300", "start": 397.36, "duration": 5.679}, {"text": "minus 32 over 1.8", "start": 399.199, "duration": 3.84}, {"text": "300 minus 32 is 268 and 268 divided by", "start": 404.319, "duration": 7.121}, {"text": "1.8", "start": 409.44, "duration": 3.479}, {"text": "is", "start": 411.44, "duration": 3.599}, {"text": "148.8 repeating", "start": 412.919, "duration": 5.161}, {"text": "so let's round that to 0.9", "start": 415.039, "duration": 6.72}, {"text": "thus 300 degrees fahrenheit is 148.9", "start": 418.08, "duration": 5.92}, {"text": "degrees celsius", "start": 421.759, "duration": 4.401}, {"text": "now that we have the celsius temperature", "start": 424.0, "duration": 4.319}, {"text": "we can get the kelvin temperature", "start": 426.16, "duration": 4.8}, {"text": "so that's going to be the celsius plus", "start": 428.319, "duration": 4.801}, {"text": "273.", "start": 430.96, "duration": 6.16}, {"text": "so it's 148.9 plus 273", "start": 433.12, "duration": 5.199}, {"text": "and if you want to you could use the", "start": 437.12, "duration": 3.68}, {"text": "273.15", "start": 438.319, "duration": 6.081}, {"text": "since we have a decimal value here", "start": 440.8, "duration": 3.6}, {"text": "and the answer is going to be", "start": 448.56, "duration": 5.039}, {"text": "422.05 kelvin", "start": 451.16, "duration": 4.36}, {"text": "so you may need to use discretion on", "start": 453.599, "duration": 5.841}, {"text": "when to add the point 15.", "start": 455.52, "duration": 3.92}, {"text": "if your celsius temperature is rounded", "start": 459.599, "duration": 4.32}, {"text": "to the nearest tenth then it may be wise", "start": 462.0, "duration": 3.84}, {"text": "to do that if it's rounded to nearest", "start": 463.919, "duration": 4.321}, {"text": "whole number then you could just add 273", "start": 465.84, "duration": 4.0}, {"text": "to it", "start": 468.24, "duration": 3.359}, {"text": "for the sake of practice let's try", "start": 469.84, "duration": 4.16}, {"text": "another example", "start": 471.599, "duration": 4.481}, {"text": "so let's try a temperature value that's", "start": 474.0, "duration": 3.599}, {"text": "negative", "start": 476.08, "duration": 3.36}, {"text": "go ahead and convert negative 40 degrees", "start": 477.599, "duration": 2.961}, {"text": "fahrenheit", "start": 479.44, "duration": 2.0}, {"text": "to", "start": 480.56, "duration": 3.359}, {"text": "kelvin", "start": 481.44, "duration": 2.479}, {"text": "take a minute and work on that example", "start": 484.16, "duration": 5.28}, {"text": "so the celsius temperature we're going", "start": 487.759, "duration": 3.361}, {"text": "to follow the same process let's convert", "start": 489.44, "duration": 4.159}, {"text": "fahrenheit to celsius first", "start": 491.12, "duration": 3.68}, {"text": "the celsius temperature is going to be", "start": 493.599, "duration": 3.761}, {"text": "the fahrenheit temperature minus 32 over", "start": 494.8, "duration": 4.32}, {"text": "1.8", "start": 497.36, "duration": 4.32}, {"text": "so f is negative 40", "start": 499.12, "duration": 6.079}, {"text": "and negative 40 minus 32 that's negative", "start": 501.68, "duration": 6.079}, {"text": "72", "start": 505.199, "duration": 2.56}, {"text": "negative 72 divided by 1.8 is negative", "start": 507.919, "duration": 4.721}, {"text": "40.", "start": 511.039, "duration": 4.161}, {"text": "so this is the one temperature in which", "start": 512.64, "duration": 5.04}, {"text": "the fahrenheit temperature is the same", "start": 515.2, "duration": 4.88}, {"text": "as the celsius temperature i've actually", "start": 517.68, "duration": 3.68}, {"text": "seen that in", "start": 520.08, "duration": 3.68}, {"text": "test problems", "start": 521.36, "duration": 4.4}, {"text": "so just keep that in mind", "start": 523.76, "duration": 3.519}, {"text": "now that we have the celsius temperature", "start": 525.76, "duration": 3.519}, {"text": "we can get the kelvin temperature using", "start": 527.279, "duration": 3.841}, {"text": "this formula", "start": 529.279, "duration": 3.441}, {"text": "so since this is rounded to the nearest", "start": 531.12, "duration": 3.6}, {"text": "whole number we're going to use 273", "start": 532.72, "duration": 5.36}, {"text": "instead of 273.15", "start": 534.72, "duration": 5.2}, {"text": "so it's negative 40", "start": 538.08, "duration": 5.199}, {"text": "plus 273 which is the same as 273 minus", "start": 539.92, "duration": 4.4}, {"text": "40.", "start": 543.279, "duration": 4.161}, {"text": "and thus the kelvin temperature is 233", "start": 544.32, "duration": 5.519}, {"text": "degrees", "start": 547.44, "duration": 2.399}, {"text": "so", "start": 551.68, "duration": 2.32}, {"text": "that's how you can convert from", "start": 552.72, "duration": 3.119}, {"text": "fahrenheit to kelvin", "start": 554.0, "duration": 3.76}, {"text": "this by converting fahrenheit to celsius", "start": 555.839, "duration": 4.321}, {"text": "first and then from celsius you can", "start": 557.76, "duration": 5.28}, {"text": "convert that to kelvin now let's try a", "start": 560.16, "duration": 4.48}, {"text": "similar problem", "start": 563.04, "duration": 3.6}, {"text": "backwards instead of going from", "start": 564.64, "duration": 3.6}, {"text": "fahrenheit to kelvin", "start": 566.64, "duration": 4.72}, {"text": "let's convert from kelvin to fahrenheit", "start": 568.24, "duration": 4.88}, {"text": "so if we have a temperature of 400", "start": 571.36, "duration": 4.96}, {"text": "kelvin what is that in fahrenheit go", "start": 573.12, "duration": 5.04}, {"text": "ahead and pause the video and try this", "start": 576.32, "duration": 3.92}, {"text": "example", "start": 578.16, "duration": 4.48}, {"text": "what we're going to do is go from kelvin", "start": 580.24, "duration": 4.8}, {"text": "to celsius and then celsius to", "start": 582.64, "duration": 4.319}, {"text": "fahrenheit", "start": 585.04, "duration": 4.0}, {"text": "so the celsius temperature is the kelvin", "start": 586.959, "duration": 5.041}, {"text": "temperature minus 273", "start": 589.04, "duration": 5.04}, {"text": "so we have 400", "start": 592.0, "duration": 4.72}, {"text": "minus 273", "start": 594.08, "duration": 5.439}, {"text": "400 minus 200 is", "start": 596.72, "duration": 3.92}, {"text": "200", "start": 599.519, "duration": 3.921}, {"text": "and then 200 minus 73. let's do mental", "start": 600.64, "duration": 6.639}, {"text": "math this is 200 minus 70 minus 3.", "start": 603.44, "duration": 7.28}, {"text": "200 minus 70 is 130 and 130 minus 3 is", "start": 607.279, "duration": 5.441}, {"text": "127.", "start": 610.72, "duration": 4.239}, {"text": "so that is the temperature in", "start": 612.72, "duration": 3.84}, {"text": "celsius", "start": 614.959, "duration": 4.721}, {"text": "so 400 kelvin is equal to 127 degrees", "start": 616.56, "duration": 4.32}, {"text": "celsius", "start": 619.68, "duration": 2.88}, {"text": "now from celsius", "start": 620.88, "duration": 4.16}, {"text": "let's go to fahrenheit", "start": 622.56, "duration": 5.12}, {"text": "the fahrenheit temperature is 1.8 times", "start": 625.04, "duration": 6.72}, {"text": "the celsius temperature plus 32.", "start": 627.68, "duration": 6.08}, {"text": "so that's going to be 1.8", "start": 631.76, "duration": 4.24}, {"text": "times 127", "start": 633.76, "duration": 4.079}, {"text": "plus 32. so i'm going to use the", "start": 636.0, "duration": 3.6}, {"text": "calculator for that", "start": 637.839, "duration": 7.321}, {"text": "1.8 times 127. that is", "start": 639.6, "duration": 5.56}, {"text": "i type that in wrong", "start": 646.72, "duration": 6.72}, {"text": "1.8 times 127 is 228.6", "start": 648.48, "duration": 7.84}, {"text": "and then if we add 32 to that", "start": 653.44, "duration": 4.16}, {"text": "it's going to give us a fahrenheit", "start": 656.32, "duration": 5.079}, {"text": "temperature of 260", "start": 657.6, "duration": 3.799}, {"text": "degrees", "start": 661.6, "duration": 4.96}, {"text": "so that's how we can convert from kelvin", "start": 663.76, "duration": 4.88}, {"text": "to fahrenheit you want to convert from", "start": 666.56, "duration": 4.719}, {"text": "kelvin to celsius first and then from", "start": 668.64, "duration": 6.56}, {"text": "celsius to fahrenheit", "start": 671.279, "duration": 3.921}]